 Gaussian 09, Revision A.02,
 Gaussian 09:  AM64L-G09RevA.02 11-Jun-2009

 -------------------------------------------
 #P HF/6-31G* SCF=Tight Pop=(MK) IOP(6/33=2)
 -------------------------------------------

 ---
 31N
 ---
 Symbolic Z-matrix:
 Charge =  1 Multiplicity = 1

                         Standard orientation:
 ---------------------------------------------------------------------
 Center     Atomic      Atomic             Coordinates (Angstroms)
 Number     Number       Type             X           Y           Z
 ---------------------------------------------------------------------
      1          6           0        7.197179    0.179161    0.059734
      2          6           0        5.825574    0.298632   -0.101905
      3          6           0        5.720781   -2.093376    0.124700
      4          6           0        3.627568   -0.794520   -0.286727
      5          6           0        2.700293   -0.853987    0.891884
      6          6           0        1.249819   -0.607413    0.435466
      7          6           0        0.847755   -1.642540   -0.629531
      8          6           0       -0.583599   -1.415036   -1.064000
      9          6           0       -0.290496    0.999270   -0.568893
     10          6           0       -1.086441   -0.499566    1.232114
     11          7           0       -2.580242   -0.061216   -0.689296
     12          6           0       -3.510735   -1.161676   -0.271541
     13          6           0       -4.962679   -0.883270   -0.433726
     14          6           0        7.332766    2.563290   -0.190926
     15          9           0        5.035632   -3.259223    0.188284
     16          7           0        5.212796    1.484860   -0.288739
     17          8           0        5.404288    3.861873   -0.498011
     18          6           0        7.935092    1.340044   -0.001775
     19          6           0        5.966015    2.592615   -0.314750
     20          7           0        7.828035   -0.990968    0.225401
     21          6           0        7.085064   -2.099758    0.262543
     22          6           0        5.092332   -0.874191   -0.054701
     23          6           0       -1.146322   -0.237642   -0.273550
     24          8           0        1.055215    0.754494   -0.084216
     25          6           0        0.340865   -0.799987    1.644751
     26          7           0       -5.466466    0.163644    0.238033
     27          6           0       -6.776814    0.406158    0.079052
     28          6           0       -7.601222   -0.377433   -0.707353
     29          6           0       -7.067912   -1.458336   -1.375497
     30          6           0       -5.719956   -1.720747   -1.234399
     31          8           0        2.855771   -2.186789    1.376809
     32          7           0       -7.339082    1.469869    0.789421
     33          6           0       -8.696639    1.508064    0.952278
     34          6           0       -9.567617    0.488899    0.300307
     35          8           0       -8.945741   -0.097086   -0.831261
     36          8           0       -9.198247    2.396011    1.615867
     37          6           0        3.980100    3.793213   -0.638079
     38          1           0        3.396093   -1.668450   -0.860147
     39          1           0        3.473096    0.177026   -0.707628
     40          1           0        2.915942   -0.116754    1.637141
     41          1           0        0.873716   -2.600422   -0.151471
     42          1           0        1.460631   -1.454618   -1.485954
     43          1           0       -1.139989   -2.280671   -0.773365
     44          1           0       -0.555208   -1.116933   -2.091636
     45          1           0       -0.228362    1.088545   -1.633099
     46          1           0       -0.690992    1.802623    0.013763
     47          1           0       -1.652059   -1.389770    1.411897
     48          1           0       -1.360937    0.415293    1.714607
     49          1           0       -2.596998   -0.019266   -1.688589
     50          1           0       -3.302148   -1.974874   -0.934639
     51          1           0       -3.359772   -1.276724    0.781196
     52          1           0        7.911981    3.461986   -0.239770
     53          1           0        9.000284    1.290558    0.097675
     54          1           0        7.578159   -3.038919    0.407099
     55          1           0        0.380347   -1.836987    1.903014
     56          1           0        0.620313   -0.058604    2.366059
     57          1           0       -7.685078   -2.080434   -1.989115
     58          1           0       -5.270551   -2.554397   -1.731760
     59          1           0        3.521770   -2.642158    0.855898
     60          1           0       -9.693039   -0.299048    1.014509
     61          1           0      -10.423428    1.016632   -0.067652
     62          1           0        3.662501    2.772664   -0.570313
     63          1           0        3.695017    4.191748   -1.589737
     64          1           0        3.516444    4.362732    0.140718
     65          1           0       -6.759591    2.188851    1.172094
     66          1           0       -2.909031    0.782829   -0.265459
 ---------------------------------------------------------------------

 SCF Done:  E(RHF) =  -1747.15057592     A.U. after   16 cycles

 The electronic state is 1-A.
 Alpha  occ. eigenvalues --  -26.42406 -20.70783 -20.69204 -20.66844 -20.64047
 Alpha  occ. eigenvalues --  -20.63362 -15.85524 -15.72017 -15.71308 -15.65375
 Alpha  occ. eigenvalues --  -15.64116 -11.46121 -11.45649 -11.44723 -11.44030
 Alpha  occ. eigenvalues --  -11.42991 -11.42624 -11.42454 -11.42320 -11.41448
 Alpha  occ. eigenvalues --  -11.40153 -11.39980 -11.38336 -11.37523 -11.37392
 Alpha  occ. eigenvalues --  -11.36786 -11.36378 -11.35676 -11.35412 -11.34162
 Alpha  occ. eigenvalues --  -11.34128 -11.33658 -11.33251 -11.32974 -11.32875
 Alpha  occ. eigenvalues --  -11.31165 -11.30697  -1.73147  -1.53870  -1.50624
 Alpha  occ. eigenvalues --   -1.48919  -1.48598  -1.47573  -1.44922  -1.42353
 Alpha  occ. eigenvalues --   -1.36650  -1.34978  -1.31501  -1.27148  -1.22739
 Alpha  occ. eigenvalues --   -1.21882  -1.21177  -1.18607  -1.17169  -1.15838
 Alpha  occ. eigenvalues --   -1.12870  -1.12448  -1.10014  -1.08476  -1.04915
 Alpha  occ. eigenvalues --   -1.03097  -1.01823  -1.00867  -1.00242  -0.99706
 Alpha  occ. eigenvalues --   -0.96975  -0.96000  -0.94274  -0.93222  -0.90447
 Alpha  occ. eigenvalues --   -0.89160  -0.88255  -0.86322  -0.85976  -0.85505
 Alpha  occ. eigenvalues --   -0.84529  -0.83868  -0.83152  -0.81863  -0.81207
 Alpha  occ. eigenvalues --   -0.81066  -0.80407  -0.79974  -0.79659  -0.78018
 Alpha  occ. eigenvalues --   -0.77643  -0.76965  -0.75829  -0.74973  -0.74433
 Alpha  occ. eigenvalues --   -0.73245  -0.72427  -0.72156  -0.71905  -0.71695
 Alpha  occ. eigenvalues --   -0.71669  -0.71133  -0.70731  -0.69985  -0.69433
 Alpha  occ. eigenvalues --   -0.69291  -0.68572  -0.68278  -0.67938  -0.67430
 Alpha  occ. eigenvalues --   -0.66744  -0.66022  -0.65862  -0.64894  -0.64484
 Alpha  occ. eigenvalues --   -0.63714  -0.63443  -0.62300  -0.61306  -0.61106
 Alpha  occ. eigenvalues --   -0.59709  -0.59588  -0.59115  -0.58743  -0.57702
 Alpha  occ. eigenvalues --   -0.57017  -0.56071  -0.55295  -0.53492  -0.52968
 Alpha  occ. eigenvalues --   -0.52616  -0.52328  -0.52084  -0.49878  -0.49043
 Alpha  occ. eigenvalues --   -0.47715  -0.43586  -0.40839  -0.39624
 Alpha virt. eigenvalues --   -0.02628  -0.01308   0.00626   0.03373   0.05748
 Alpha virt. eigenvalues --    0.06642   0.07783   0.09090   0.09311   0.09684
 Alpha virt. eigenvalues --    0.12316   0.13536   0.13745   0.14562   0.15597

 Mulliken atomic charges:
              1
     1  C    0.252975
     2  C    0.329974
     3  C    0.392732
     4  C   -0.486264
     5  C    0.218121
     6  C    0.259001
     7  C   -0.361414
     8  C   -0.338645
     9  C    0.095088
    10  C   -0.347102
    11  N   -0.760468
    12  C   -0.224632
    13  C    0.273178
    14  C   -0.302284
    15  F   -0.402425
    16  N   -0.782794
    17  O   -0.663604
    18  C   -0.124940
    19  C    0.746619
    20  N   -0.568429
    21  C    0.011532
    22  C   -0.007202
    23  C   -0.020420
    24  O   -0.694769
    25  C   -0.323975
    26  N   -0.665916
    27  C    0.600066
    28  C    0.360837
    29  C   -0.158474
    30  C   -0.271469
    31  O   -0.816407
    32  N   -0.867138
    33  C    0.731061
    34  C   -0.075253
    35  O   -0.684437
    36  O   -0.572370
    37  C   -0.203530
    38  H    0.200842
    39  H    0.264097
    40  H    0.205894
    41  H    0.228516
    42  H    0.221676
    43  H    0.205408
    44  H    0.195288
    45  H    0.186965
    46  H    0.189388
    47  H    0.204297
    48  H    0.204733
    49  H    0.446061
    50  H    0.248094
    51  H    0.277028
    52  H    0.255725
    53  H    0.259319
    54  H    0.240376
    55  H    0.231629
    56  H    0.215868
    57  H    0.275956
    58  H    0.239649
    59  H    0.503702
    60  H    0.227929
    61  H    0.267466
    62  H    0.226166
    63  H    0.171113
    64  H    0.171830
    65  H    0.429612
    66  H    0.458550
 Sum of Mulliken atomic charges =   1.00000

 Dipole moment (field-independent basis, Debye):
    X=            -11.0238    Y=             -3.4780    Z=             -4.9705  Tot=             12.5827
 Quadrupole moment (field-independent basis, Debye-Ang):
   XX=           -129.3687   YY=           -205.0858   ZZ=           -210.8296
   XY=             28.9384   XZ=             16.3683   YZ=              2.7784

 Normal termination of Gaussian 09 at Mon Mar 14 11:43:43 2016.
